# vtk DataFile Version 3.0
vtk output
ASCII
DATASET UNSTRUCTURED_GRID
FIELD FieldData 2
TIME 1 1 double
0.00130007
CYCLE 1 1 int
0
POINTS 10238 float
-0.05 -0.049 0
-0.049 -0.049 0
-0.049 -0.048 0
-0.05 -0.048 0
-0.05 -0.05 0
-0.049 -0.05 0
-0.048 -0.05 0
-0.048 -0.049 0
-0.049 -0.047 0
-0.05 -0.047 0
-0.048 -0.048 0
-0.048 -0.047 0
-0.047 -0.05 0
-0.047 -0.049 0
-0.047 -0.048 0
-0.049 -0.046 0
-0.05 -0.046 0
-0.048 -0.046 0
-0.047 -0.047 0
-0.047 -0.046 0
-0.046 -0.05 0
-0.046 -0.049 0
-0.046 -0.048 0
-0.046 -0.047 0
-0.049 -0.045 0
-0.05 -0.045 0
-0.048 -0.045 0
-0.047 -0.045 0
-0.046 -0.046 0
-0.046 -0.045 0
-0.045 -0.05 0
-0.045 -0.049 0
-0.045 -0.048 0
-0.045 -0.047 0
-0.045 -0.046 0
-0.049 -0.044 0
-0.05 -0.044 0
-0.048 -0.044 0
-0.047 -0.044 0
-0.046 -0.044 0
-0.045 -0.045 0
-0.045 -0.044 0
-0.044 -0.05 0
-0.044 -0.049 0
-0.044 -0.048 0
-0.044 -0.047 0
-0.044 -0.046 0
-0.044 -0.045 0
-0.049 -0.043 0
-0.05 -0.043 0
-0.048 -0.043 0
-0.047 -0.043 0
-0.046 -0.043 0
-0.045 -0.043 0
-0.044 -0.044 0
-0.044 -0.043 0
-0.043 -0.05 0
-0.043 -0.049 0
-0.043 -0.048 0
-0.043 -0.047 0
-0.043 -0.046 0
-0.043 -0.045 0
-0.043 -0.044 0
-0.049 -0.042 0
-0.05 -0.042 0
-0.048 -0.042 0
-0.047 -0.042 0
-0.046 -0.042 0
-0.045 -0.042 0
-0.044 -0.042 0
-0.043 -0.043 0
-0.043 -0.042 0
-0.042 -0.05 0
-0.042 -0.049 0
-0.042 -0.048 0
-0.042 -0.047 0
-0.042 -0.046 0
-0.042 -0.045 0
-0.042 -0.044 0
-0.042 -0.043 0
-0.049 -0.041 0
-0.05 -0.041 0
-0.048 -0.041 0
-0.047 -0.041 0
-0.046 -0.041 0
-0.045 -0.041 0
-0.044 -0.041 0
-0.043 -0.041 0
-0.042 -0.042 0
-0.042 -0.041 0
-0.041 -0.05 0
-0.041 -0.049 0
-0.041 -0.048 0
-0.041 -0.047 0
-0.041 -0.046 0
-0.041 -0.045 0
-0.041 -0.044 0
-0.041 -0.043 0
-0.041 -0.042 0
-0.049 -0.04 0
-0.05 -0.04 0
-0.048 -0.04 0
-0.047 -0.04 0
-0.046 -0.04 0
-0.045 -0.04 0
-0.044 -0.04 0
-0.043 -0.04 0
-0.042 -0.04 0
-0.041 -0.041 0
-0.041 -0.04 0
-0.04 -0.05 0
-0.04 -0.049 0
-0.04 -0.048 0
-0.04 -0.047 0
-0.04 -0.046 0
-0.04 -0.045 0
-0.04 -0.044 0
-0.04 -0.043 0
-0.04 -0.042 0
-0.04 -0.041 0
-0.049 -0.039 0
-0.05 -0.039 0
-0.048 -0.039 0
-0.047 -0.039 0
-0.046 -0.039 0
-0.045 -0.039 0
-0.044 -0.039 0
-0.043 -0.039 0
-0.042 -0.039 0
-0.041 -0.039 0
-0.04 -0.04 0
-0.04 -0.039 0
-0.039 -0.05 0
-0.039 -0.049 0
-0.039 -0.048 0
-0.039 -0.047 0
-0.039 -0.046 0
-0.039 -0.045 0
-0.039 -0.044 0
-0.039 -0.043 0
-0.039 -0.042 0
-0.039 -0.041 0
-0.039 -0.04 0
-0.049 -0.038 0
-0.05 -0.038 0
-0.048 -0.038 0
-0.047 -0.038 0
-0.046 -0.038 0
-0.045 -0.038 0
-0.044 -0.038 0
-0.043 -0.038 0
-0.042 -0.038 0
-0.041 -0.038 0
-0.04 -0.038 0
-0.039 -0.039 0
-0.039 -0.038 0
-0.038 -0.05 0
-0.038 -0.049 0
-0.038 -0.048 0
-0.038 -0.047 0
-0.038 -0.046 0
-0.038 -0.045 0
-0.038 -0.044 0
-0.038 -0.043 0
-0.038 -0.042 0
-0.038 -0.041 0
-0.038 -0.04 0
-0.038 -0.039 0
-0.049 -0.037 0
-0.05 -0.037 0
-0.048 -0.037 0
-0.047 -0.037 0
-0.046 -0.037 0
-0.045 -0.037 0
-0.044 -0.037 0
-0.043 -0.037 0
-0.042 -0.037 0
-0.041 -0.037 0
-0.04 -0.037 0
-0.039 -0.037 0
-0.038 -0.038 0
-0.038 -0.037 0
-0.037 -0.05 0
-0.037 -0.049 0
-0.037 -0.048 0
-0.037 -0.047 0
-0.037 -0.046 0
-0.037 -0.045 0
-0.037 -0.044 0
-0.037 -0.043 0
-0.037 -0.042 0
-0.037 -0.041 0
-0.037 -0.04 0
-0.037 -0.039 0
-0.037 -0.038 0
-0.049 -0.036 0
-0.05 -0.036 0
-0.048 -0.036 0
-0.047 -0.036 0
-0.046 -0.036 0
-0.045 -0.036 0
-0.044 -0.036 0
-0.043 -0.036 0
-0.042 -0.036 0
-0.041 -0.036 0
-0.04 -0.036 0
-0.039 -0.036 0
-0.038 -0.036 0
-0.037 -0.037 0
-0.037 -0.036 0
-0.036 -0.05 0
-0.036 -0.049 0
-0.036 -0.048 0
-0.036 -0.047 0
-0.036 -0.046 0
-0.036 -0.045 0
-0.036 -0.044 0
-0.036 -0.043 0
-0.036 -0.042 0
-0.036 -0.041 0
-0.036 -0.04 0
-0.036 -0.039 0
-0.036 -0.038 0
-0.036 -0.037 0
-0.049 -0.035 0
-0.05 -0.035 0
-0.048 -0.035 0
-0.047 -0.035 0
-0.046 -0.035 0
-0.045 -0.035 0
-0.044 -0.035 0
-0.043 -0.035 0
-0.042 -0.035 0
-0.041 -0.035 0
-0.04 -0.035 0
-0.039 -0.035 0
-0.038 -0.035 0
-0.037 -0.035 0
-0.036 -0.036 0
-0.036 -0.035 0
-0.035 -0.05 0
-0.035 -0.049 0
-0.035 -0.048 0
-0.035 -0.047 0
-0.035 -0.046 0
-0.035 -0.045 0
-0.035 -0.044 0
-0.035 -0.043 0
-0.035 -0.042 0
-0.035 -0.041 0
-0.035 -0.04 0
-0.035 -0.039 0
-0.035 -0.038 0
-0.035 -0.037 0
-0.035 -0.036 0
-0.049 -0.034 0
-0.05 -0.034 0
-0.048 -0.034 0
-0.047 -0.034 0
-0.046 -0.034 0
-0.045 -0.034 0
-0.044 -0.034 0
-0.043 -0.034 0
-0.042 -0.034 0
-0.041 -0.034 0
-0.04 -0.034 0
-0.039 -0.034 0
-0.038 -0.034 0
-0.037 -0.034 0
-0.036 -0.034 0
-0.035 -0.035 0
-0.035 -0.034 0
-0.034 -0.05 0
-0.034 -0.049 0
-0.034 -0.048 0
-0.034 -0.047 0
-0.034 -0.046 0
-0.034 -0.045 0
-0.034 -0.044 0
-0.034 -0.043 0
-0.034 -0.042 0
-0.034 -0.041 0
-0.034 -0.04 0
-0.034 -0.039 0
-0.034 -0.038 0
-0.034 -0.037 0
-0.034 -0.036 0
-0.034 -0.035 0
-0.049 -0.033 0
-0.05 -0.033 0
-0.048 -0.033 0
-0.047 -0.033 0
-0.046 -0.033 0
-0.045 -0.033 0
-0.044 -0.033 0
-0.043 -0.033 0
-0.042 -0.033 0
-0.041 -0.033 0
-0.04 -0.033 0
-0.039 -0.033 0
-0.038 -0.033 0
-0.037 -0.033 0
-0.036 -0.033 0
-0.035 -0.033 0
-0.034 -0.034 0
-0.034 -0.033 0
-0.033 -0.05 0
-0.033 -0.049 0
-0.033 -0.048 0
-0.033 -0.047 0
-0.033 -0.046 0
-0.033 -0.045 0
-0.033 -0.044 0
-0.033 -0.043 0
-0.033 -0.042 0
-0.033 -0.041 0
-0.033 -0.04 0
-0.033 -0.039 0
-0.033 -0.038 0
-0.033 -0.037 0
-0.033 -0.036 0
-0.033 -0.035 0
-0.033 -0.034 0
-0.049 -0.032 0
-0.05 -0.032 0
-0.048 -0.032 0
-0.047 -0.032 0
-0.046 -0.032 0
-0.045 -0.032 0
-0.044 -0.032 0
-0.043 -0.032 0
-0.042 -0.032 0
-0.041 -0.032 0
-0.04 -0.032 0
-0.039 -0.032 0
-0.038 -0.032 0
-0.037 -0.032 0
-0.036 -0.032 0
-0.035 -0.032 0
-0.034 -0.032 0
-0.033 -0.033 0
-0.033 -0.032 0
-0.032 -0.05 0
-0.032 -0.049 0
-0.032 -0.048 0
-0.032 -0.047 0
-0.032 -0.046 0
-0.032 -0.045 0
-0.032 -0.044 0
-0.032 -0.043 0
-0.032 -0.042 0
-0.032 -0.041 0
-0.032 -0.04 0
-0.032 -0.039 0
-0.032 -0.038 0
-0.032 -0.037 0
-0.032 -0.036 0
-0.032 -0.035 0
-0.032 -0.034 0
-0.032 -0.033 0
-0.049 -0.031 0
-0.05 -0.031 0
-0.048 -0.031 0
-0.047 -0.031 0
-0.046 -0.031 0
-0.045 -0.031 0
-0.044 -0.031 0
-0.043 -0.031 0
-0.042 -0.031 0
-0.041 -0.031 0
-0.04 -0.031 0
-0.039 -0.031 0
-0.038 -0.031 0
-0.037 -0.031 0
-0.036 -0.031 0
-0.035 -0.031 0
-0.034 -0.031 0
-0.033 -0.031 0
-0.032 -0.032 0
-0.032 -0.031 0
-0.031 -0.05 0
-0.031 -0.049 0
-0.031 -0.048 0
-0.031 -0.047 0
-0.031 -0.046 0
-0.031 -0.045 0
-0.031 -0.044 0
-0.031 -0.043 0
-0.031 -0.042 0
-0.031 -0.041 0
-0.031 -0.04 0
-0.031 -0.039 0
-0.031 -0.038 0
-0.031 -0.037 0
-0.031 -0.036 0
-0.031 -0.035 0
-0.031 -0.034 0
-0.031 -0.033 0
-0.031 -0.032 0
-0.049 -0.03 0
-0.05 -0.03 0
-0.048 -0.03 0
-0.047 -0.03 0
-0.046 -0.03 0
-0.045 -0.03 0
-0.044 -0.03 0
-0.043 -0.03 0
-0.042 -0.03 0
-0.041 -0.03 0
-0.04 -0.03 0
-0.039 -0.03 0
-0.038 -0.03 0
-0.037 -0.03 0
-0.036 -0.03 0
-0.035 -0.03 0
-0.034 -0.03 0
-0.033 -0.03 0
-0.032 -0.03 0
-0.031 -0.031 0
-0.031 -0.03 0
-0.03 -0.05 0
-0.03 -0.049 0
-0.03 -0.048 0
-0.03 -0.047 0
-0.03 -0.046 0
-0.03 -0.045 0
-0.03 -0.044 0
-0.03 -0.043 0
-0.03 -0.042 0
-0.03 -0.041 0
-0.03 -0.04 0
-0.03 -0.039 0
-0.03 -0.038 0
-0.03 -0.037 0
-0.03 -0.036 0
-0.03 -0.035 0
-0.03 -0.034 0
-0.03 -0.033 0
-0.03 -0.032 0
-0.03 -0.031 0
-0.049 -0.029 0
-0.05 -0.029 0
-0.048 -0.029 0
-0.047 -0.029 0
-0.046 -0.029 0
-0.045 -0.029 0
-0.044 -0.029 0
-0.043 -0.029 0
-0.042 -0.029 0
-0.041 -0.029 0
-0.04 -0.029 0
-0.039 -0.029 0
-0.038 -0.029 0
-0.037 -0.029 0
-0.036 -0.029 0
-0.035 -0.029 0
-0.034 -0.029 0
-0.033 -0.029 0
-0.032 -0.029 0
-0.031 -0.029 0
-0.03 -0.03 0
-0.03 -0.029 0
-0.029 -0.05 0
-0.029 -0.049 0
-0.029 -0.048 0
-0.029 -0.047 0
-0.029 -0.046 0
-0.029 -0.045 0
-0.029 -0.044 0
-0.029 -0.043 0
-0.029 -0.042 0
-0.029 -0.041 0
-0.029 -0.04 0
-0.029 -0.039 0
-0.029 -0.038 0
-0.029 -0.037 0
-0.029 -0.036 0
-0.029 -0.035 0
-0.029 -0.034 0
-0.029 -0.033 0
-0.029 -0.032 0
-0.029 -0.031 0
-0.029 -0.03 0
-0.049 -0.028 0
-0.05 -0.028 0
-0.048 -0.028 0
-0.047 -0.028 0
-0.046 -0.028 0
-0.045 -0.028 0
-0.044 -0.028 0
-0.043 -0.028 0
-0.042 -0.028 0
-0.041 -0.028 0
-0.04 -0.028 0
-0.039 -0.028 0
-0.038 -0.028 0
-0.037 -0.028 0
-0.036 -0.028 0
-0.035 -0.028 0
-0.034 -0.028 0
-0.033 -0.028 0
-0.032 -0.028 0
-0.031 -0.028 0
-0.03 -0.028 0
-0.029 -0.029 0
-0.029 -0.028 0
-0.028 -0.05 0
-0.028 -0.049 0
-0.028 -0.048 0
-0.028 -0.047 0
-0.028 -0.046 0
-0.028 -0.045 0
-0.028 -0.044 0
-0.028 -0.043 0
-0.028 -0.042 0
-0.028 -0.041 0
-0.028 -0.04 0
-0.028 -0.039 0
-0.028 -0.038 0
-0.028 -0.037 0
-0.028 -0.036 0
-0.028 -0.035 0
-0.028 -0.034 0
-0.028 -0.033 0
-0.028 -0.032 0
-0.028 -0.031 0
-0.028 -0.03 0
-0.028 -0.029 0
-0.049 -0.027 0
-0.05 -0.027 0
-0.048 -0.027 0
-0.047 -0.027 0
-0.046 -0.027 0
-0.045 -0.027 0
-0.044 -0.027 0
-0.043 -0.027 0
-0.042 -0.027 0
-0.041 -0.027 0
-0.04 -0.027 0
-0.039 -0.027 0
-0.038 -0.027 0
-0.037 -0.027 0
-0.036 -0.027 0
-0.035 -0.027 0
-0.034 -0.027 0
-0.033 -0.027 0
-0.032 -0.027 0
-0.031 -0.027 0
-0.03 -0.027 0
-0.029 -0.027 0
-0.028 -0.028 0
-0.028 -0.027 0
-0.027 -0.05 0
-0.027 -0.049 0
-0.027 -0.048 0
-0.027 -0.047 0
-0.027 -0.046 0
-0.027 -0.045 0
-0.027 -0.044 0
-0.027 -0.043 0
-0.027 -0.042 0
-0.027 -0.041 0
-0.027 -0.04 0
-0.027 -0.039 0
-0.027 -0.038 0
-0.027 -0.037 0
-0.027 -0.036 0
-0.027 -0.035 0
-0.027 -0.034 0
-0.027 -0.033 0
-0.027 -0.032 0
-0.027 -0.031 0
-0.027 -0.03 0
-0.027 -0.029 0
-0.027 -0.028 0
-0.049 -0.026 0
-0.05 -0.026 0
-0.048 -0.026 0
-0.047 -0.026 0
-0.046 -0.026 0
-0.045 -0.026 0
-0.044 -0.026 0
-0.043 -0.026 0
-0.042 -0.026 0
-0.041 -0.026 0
-0.04 -0.026 0
-0.039 -0.026 0
-0.038 -0.026 0
-0.037 -0.026 0
-0.036 -0.026 0
-0.035 -0.026 0
-0.034 -0.026 0
-0.033 -0.026 0
-0.032 -0.026 0
-0.031 -0.026 0
-0.03 -0.026 0
-0.029 -0.026 0
-0.028 -0.026 0
-0.027 -0.027 0
-0.027 -0.026 0
-0.026 -0.05 0
-0.026 -0.049 0
-0.026 -0.048 0
-0.026 -0.047 0
-0.026 -0.046 0
-0.026 -0.045 0
-0.026 -0.044 0
-0.026 -0.043 0
-0.026 -0.042 0
-0.026 -0.041 0
-0.026 -0.04 0
-0.026 -0.039 0
-0.026 -0.038 0
-0.026 -0.037 0
-0.026 -0.036 0
-0.026 -0.035 0
-0.026 -0.034 0
-0.026 -0.033 0
-0.026 -0.032 0
-0.026 -0.031 0
-0.026 -0.03 0
-0.026 -0.029 0
-0.026 -0.028 0
-0.026 -0.027 0
-0.049 -0.025 0
[...]
POINT_DATA 10238
SCALARS NODE_ID int 1
LOOKUP_TABLE default
102
103
204
203
1
2
3
104
305
304
205
306
4
105
206
406
405
407
307
408
5
106
207
308
507
506
508
509
409
510
6
107
208
309
410
608
607
609
610
611
511
612
7
108
209
310
411
512
709
708
710
711
712
713
613
714
8
109
210
311
412
513
614
810
809
811
812
813
814
815
715
816
9
110
211
312
413
514
615
716
911
910
912
913
914
915
916
917
817
918
10
111
212
313
414
515
616
717
818
1012
1011
1013
1014
1015
1016
1017
1018
1019
919
1020
11
112
213
314
415
516
617
718
819
920
1113
1112
1114
1115
1116
1117
1118
1119
1120
1121
1021
1122
12
113
214
315
416
517
618
719
820
921
1022
1214
1213
1215
1216
1217
1218
1219
1220
1221
1222
1223
1123
1224
13
114
215
316
417
518
619
720
821
922
1023
1124
1315
1314
1316
1317
1318
1319
1320
1321
1322
1323
1324
1325
1225
1326
14
115
216
317
418
519
620
721
822
923
1024
1125
1226
1416
1415
1417
1418
1419
1420
1421
1422
1423
1424
1425
1426
1427
1327
1428
15
116
217
318
419
520
621
722
823
924
1025
1126
1227
1328
1517
1516
1518
1519
1520
1521
1522
1523
1524
1525
1526
1527
1528
1529
1429
1530
16
117
218
319
420
521
622
723
824
925
1026
1127
1228
1329
1430
1618
1617
1619
1620
1621
1622
1623
1624
1625
1626
1627
1628
1629
1630
1631
1531
1632
17
118
219
320
421
522
623
724
825
926
1027
1128
1229
1330
1431
1532
1719
1718
1720
1721
1722
1723
1724
1725
1726
1727
1728
1729
1730
1731
1732
1733
1633
1734
18
119
220
321
422
523
624
725
826
927
1028
1129
1230
1331
1432
1533
1634
1820
1819
1821
1822
1823
1824
1825
1826
1827
1828
1829
1830
1831
1832
1833
1834
1835
1735
1836
19
120
221
322
423
524
625
726
827
928
1029
1130
1231
1332
1433
1534
1635
1736
1921
1920
1922
1923
1924
1925
1926
1927
1928
1929
1930
1931
1932
1933
1934
1935
1936
1937
1837
1938
20
121
222
323
424
525
626
727
828
929
1030
1131
1232
1333
1434
1535
1636
1737
1838
2022
2021
2023
2024
2025
2026
2027
2028
2029
2030
2031
2032
2033
2034
2035
2036
2037
2038
2039
1939
2040
21
122
223
324
425
526
627
728
829
930
1031
1132
1233
1334
1435
1536
1637
1738
1839
1940
2123
2122
2124
2125
2126
2127
2128
2129
2130
2131
2132
2133
2134
2135
2136
2137
2138
2139
2140
2141
2041
2142
22
123
224
325
426
527
628
729
830
931
1032
1133
1234
1335
1436
1537
1638
1739
1840
1941
2042
2224
2223
2225
2226
2227
2228
2229
2230
2231
2232
2233
2234
2235
2236
2237
2238
2239
2240
2241
2242
2243
2143
2244
23
124
225
326
427
528
629
730
831
932
1033
1134
1235
1336
1437
1538
1639
1740
1841
1942
2043
2144
2325
2324
2326
2327
2328
2329
2330
2331
2332
2333
2334
2335
2336
2337
2338
2339
2340
2341
2342
2343
2344
2345
2245
2346
24
125
226
327
428
529
630
731
832
933
1034
1135
1236
1337
1438
1539
1640
1741
1842
1943
2044
2145
2246
2426
2425
2427
2428
2429
2430
2431
2432
2433
2434
2435
2436
2437
2438
2439
2440
2441
2442
2443
2444
2445
2446
2447
2347
2448
25
126
227
328
429
530
631
732
833
934
1035
1136
1237
1338
1439
1540
1641
1742
1843
1944
2045
2146
2247
2348
2527
2526
2528
2529
2530
2531
2532
2533
2534
2535
2536
2537
2538
2539
2540
2541
2542
2543
2544
2545
2546
2547
2548
2549
2449
2550
26
127
228
329
430
531
632
733
834
935
1036
1137
1238
1339
1440
1541
1642
1743
1844
1945
2046
2147
2248
2349
2450
2628
2627
2629
2630
2631
2632
2633
2634
2635
2636
2637
2638
2639
2640
2641
2642
2643
2644
2645
2646
2647
2648
2649
2650
2651
2551
2652
27
128
229
330
431
532
633
734
835
936
1037
1138
1239
1340
1441
1542
1643
1744
1845
1946
2047
2148
2249
2350
2451
2552
2729
2728
2730
2731
2732
2733
2734
2735
2736
2737
2738
2739
2740
2741
2742
2743
2744
2745
2746
2747
2748
2749
2750
2751
2752
2753
2653
2754
28
129
230
331
432
533
634
735
836
937
1038
1139
1240
1341
1442
1543
1644
1745
1846
1947
2048
2149
2250
2351
2452
2553
2654
2830
2829
2831
2832
2833
2834
2835
2836
2837
2838
2839
2840
2841
2842
2843
2844
2845
2846
2847
2848
2849
2850
2851
2852
2853
2854
2855
2755
2856
29
130
231
332
433
534
635
736
837
938
1039
1140
1241
1342
1443
1544
1645
1746
1847
1948
2049
2150
2251
2352
2453
2554
2655
2756
2931
2930
2932
2933
2934
2935
2936
2937
2938
2939
2940
2941
2942
2943
2944
2945
2946
2947
2948
2949
2950
2951
2952
2953
2954
2955
2956
2957
2857
2958
30
131
232
333
434
535
636
737
838
939
1040
1141
1242
1343
1444
1545
1646
1747
1848
1949
2050
2151
2252
2353
2454
2555
2656
2757
2858
3032
3031
3033
3034
3035
3036
3037
3038
3039
3040
3041
3042
3043
3044
3045
3046
3047
3048
3049
3050
3051
3052
3053
3054
3055
3056
3057
3058
3059
2959
3060
31
132
233
334
435
536
637
738
839
940
1041
1142
1243
1344
1445
1546
1647
1748
1849
1950
2051
2152
2253
2354
2455
2556
2657
2758
2859
2960
3133
3132
3134
3135
3136
3137
3138
3139
3140
3141
3142
3143
3144
3145
3146
3147
3148
3149
3150
3151
3152
3153
3154
3155
3156
3157
3158
3159
3160
3161
3061
3162
32
133
234
335
436
537
638
739
840
941
1042
1143
1244
1345
1446
1547
1648
1749
1850
1951
2052
2153
2254
2355
2456
2557
2658
2759
2860
2961
3062
3234
3233
3235
3236
3237
3238
3239
3240
3241
3242
3243
3244
3245
3246
3247
3248
3249
3250
3251
3252
3253
3254
3255
3256
3257
3258
3259
3260
3261
3262
3263
3163
3264
33
134
235
336
437
538
639
740
841
942
1043
1144
1245
1346
1447
1548
1649
1750
1851
1952
2053
2154
2255
2356
2457
2558
2659
2760
2861
2962
3063
3164
3335
3334
3336
3337
3338
3339
3340
3341
3342
3343
3344
3345
3346
3347
3348
3349
3350
3351
3352
3353
3354
3355
3356
3357
3358
3359
3360
3361
3362
3363
3364
3365
3265
3366
34
135
236
337
438
539
640
741
842
943
1044
1145
1246
1347
1448
1549
1650
1751
1852
1953
2054
2155
2256
2357
2458
2559
2660
2761
2862
2963
3064
3165
3266
3436
3435
3437
3438
3439
3440
3441
3442
3443
3444
3445
3446
3447
3448
3449
3450
3451
3452
3453
3454
3455
3456
3457
3458
3459
3460
3461
3462
3463
3464
3465
3466
3467
3367
3468
35
136
237
338
439
540
641
742
843
944
1045
1146
1247
1348
1449
1550
1651
1752
1853
1954
2055
2156
2257
2358
2459
2560
2661
2762
2863
2964
3065
3166
3267
3368
3537
3536
3538
3539
3540
3541
3542
3543
3544
3545
3546
3547
3548
3549
3550
3551
3552
3553
3554
3555
3556
3557
3558
3559
3560
3561
3562
3563
3564
3565
3566
3567
3568
3569
3469
3570
36
137
238
339
440
541
642
743
844
945
1046
1147
1248
1349
1450
1551
1652
1753
1854
1955
2056
2157
2258
2359
2460
2561
2662
2763
2864
2965
3066
3167
3268
3369
3470
3638
3637
3639
3640
3641
3642
3643
3644
3645
3646
3647
3648
3649
3650
3651
3652
3653
3654
3655
3656
3657
3658
3659
3660
3661
3662
3663
3664
3665
3666
3667
3668
3669
3670
3671
3571
3672
37
138
239
340
441
542
643
744
845
946
1047
1148
1249
1350
1451
1552
1653
1754
1855
1956
2057
2158
2259
2360
2461
2562
2663
2764
2865
2966
3067
3168
3269
3370
3471
3572
3739
3738
3740
3741
3742
3743
3744
3745
3746
3747
3748
3749
3750
3751
3752
3753
3754
3755
3756
3757
3758
3759
3760
3761
3762
3763
3764
3765
3766
3767
3768
3769
3770
3771
3772
3773
3673
3774
38
139
240
341
442
543
644
745
846
947
1048
1149
1250
1351
1452
1553
1654
1755
1856
1957
2058
2159
2260
2361
2462
2563
2664
2765
2866
2967
3068
3169
3270
3371
3472
3573
3674
3840
3839
3841
3842
3843
3844
3845
3846
3847
3848
3849
3850
3851
3852
3853
3854
3855
3856
3857
3858
3859
3860
3861
3862
3863
3864
3865
3866
3867
3868
3869
3870
3871
3872
3873
3874
3875
3775
3876
39
140
241
342
443
544
645
746
847
948
1049
1150
1251
1352
1453
1554
1655
1756
1857
1958
2059
2160
2261
2362
2463
2564
2665
2766
2867
2968
3069
3170
3271
3372
3473
3574
3675
3776
3941
3940
3942
3943
3944
3945
3946
3947
3948
3949
3950
3951
3952
3953
3954
3955
3956
3957
3958
3959
3960
3961
3962
3963
3964
3965
3966
3967
3968
3969
3970
3971
3972
3973
3974
3975
3976
3977
3877
3978
40
141
242
343
444
545
646
747
848
949
1050
1151
1252
1353
1454
1555
1656
1757
1858
1959
2060
2161
2262
2363
2464
2565
2666
2767
2868
2969
3070
3171
3272
3373
3474
3575
3676
3777
3878
4042
4041
4043
4044
4045
4046
4047
4048
4049
4050
4051
4052
4053
4054
4055
4056
4057
4058
4059
4060
4061
4062
4063
4064
4065
4066
4067
4068
4069
4070
4071
4072
4073
4074
4075
4076
4077
4078
4079
3979
4080
41
142
243
344
445
546
647
748
849
950
1051
1152
1253
1354
1455
1556
1657
1758
1859
1960
2061
2162
2263
2364
2465
2566
2667
2768
2869
2970
3071
3172
3273
3374
3475
3576
3677
3778
3879
3980
4143
4142
4144
4145
4146
4147
4148
4149
4150
4151
4152
4153
4154
4155
4156
4157
4158
4159
4160
4161
4162
4163
4164
4165
4166
4167
4168
4169
4170
4171
4172
4173
4174
4175
4176
4177
4178
4179
4180
4181
4081
4182
42
143
244
345
446
547
648
749
850
951
1052
1153
1254
1355
1456
1557
1658
1759
1860
1961
2062
2163
2264
2365
2466
2567
2668
2769
2870
2971
3072
3173
3274
3375
3476
3577
3678
3779
3880
3981
4082
4244
4243
4245
4246
4247
4248
4249
4250
4251
4252
4253
4254
4255
4256
4257
4258
4259
4260
4261
4262
4263
4264
4265
4266
4267
4268
4269
4270
4271
4272
4273
4274
4275
4276
4277
4278
4279
4280
4281
4282
4283
4183
4284
43
144
245
346
447
548
649
750
851
952
1053
1154
1255
1356
1457
1558
1659
1760
1861
1962
2063
2164
2265
2366
2467
2568
2669
2770
2871
2972
3073
3174
3275
3376
3477
3578
3679
3780
3881
3982
4083
4184
4345
4344
4346
4347
4348
4349
4350
4351
4352
4353
4354
4355
4356
4357
4358
4359
4360
4361
4362
4363
4364
4365
4366
4367
4368
4369
4370
4371
4372
4373
4374
4375
4376
4377
4378
4379
4380
4381
4382
4383
4384
4385
4285
4386
44
145
246
347
448
549
650
751
852
953
1054
1155
1256
1357
1458
1559
1660
1761
1862
1963
2064
2165
2266
2367
2468
2569
2670
2771
2872
2973
3074
3175
3276
3377
3478
3579
3680
3781
3882
3983
4084
4185
4286
4446
4445
4447
4448
4449
4450
4451
4452
4453
4454
4455
4456
4457
4458
4459
4460
4461
4462
4463
4464
4465
4466
4467
4468
4469
4470
4471
4472
4473
4474
4475
4476
4477
4478
4479
4480
4481
4482
4483
4484
4485
4486
4487
4387
4488
45
146
247
348
449
550
651
752
853
954
1055
1156
1257
1358
1459
1560
1661
1762
1863
1964
2065
2166
2267
2368
2469
2570
2671
2772
2873
2974
3075
3176
3277
3378
3479
3580
3681
3782
3883
3984
4085
4186
4287
4388
4547
4546
4548
4549
4550
4551
4552
4553
4554
4555
4556
4557
4558
4559
4560
4561
4562
4563
4564
4565
4566
4567
4568
4569
4570
4571
4572
4573
4574
4575
4576
4577
4578
4579
4580
4581
4582
4583
4584
4585
4586
4587
4588
4589
4489
4590
46
147
248
349
450
551
652
753
854
955
1056
1157
1258
1359
1460
1561
1662
1763
1864
1965
2066
2167
2268
2369
2470
2571
2672
2773
2874
2975
3076
3177
3278
3379
3480
3581
3682
3783
3884
3985
4086
4187
4288
4389
4490
4648
4647
4649
4650
4651
4652
4653
4654
4655
4656
4657
4658
4659
4660
4661
4662
4663
4664
4665
4666
4667
4668
4669
4670
4671
4672
4673
4674
4675
4676
4677
4678
4679
4680
4681
4682
4683
4684
4685
4686
4687
4688
4689
4690
4691
4591
4692
47
148
249
350
451
552
653
754
855
956
1057
1158
1259
1360
1461
1562
1663
1764
1865
1966
2067
2168
2269
2370
2471
2572
2673
2774
2875
2976
3077
3178
3279
3380
3481
3582
3683
3784
3885
3986
4087
4188
4289
4390
4491
4592
4749
4748
4750
4751
4752
4753
4754
4755
4756
4757
4758
4759
4760
4761
4762
4763
4764
4765
4766
4767
4768
4769
4770
4771
4772
4773
4774
4775
4776
4777
4778
4779
4780
4781
4782
4783
4784
4785
4786
4787
4788
4789
4790
4791
4792
4793
4693
4794
48
149
250
351
452
553
654
755
856
957
1058
1159
1260
1361
1462
1563
1664
1765
1866
1967
2068
2169
2270
2371
2472
2573
2674
2775
2876
2977
3078
3179
3280
3381
3482
3583
3684
3785
3886
3987
4088
4189
4290
4391
4492
4593
4694
4850
4849
4851
4852
4853
4854
4855
4856
4857
4858
4859
4860
4861
4862
4863
4864
4865
4866
4867
4868
4869
4870
4871
4872
4873
4874
4875
4876
4877
4878
4879
4880
4881
4882
4883
4884
4885
4886
4887
4888
4889
4890
4891
4892
4893
4894
4895
4795
4896
49
150
251
352
453
554
655
756
857
958
1059
1160
1261
1362
1463
1564
1665
1766
1867
1968
2069
2170
2271
2372
2473
2574
2675
2776
2877
2978
3079
3180
3281
3382
3483
3584
3685
3786
3887
3988
4089
4190
4291
4392
4493
4594
4695
4796
4951
4950
4952
4953
4954
4955
4956
4957
4958
4959
4960
4961
4962
4963
4964
4965
4966
4967
4968
4969
4970
4971
4972
4973
4974
4975
4976
4977
4978
4979
4980
4981
4982
4983
4984
4985
4986
4987
4988
4989
4990
4991
4992
4993
4994
4995
4996
4997
4897
4998
50
151
252
353
454
555
656
757
858
959
1060
1161
1262
1363
1464
1565
1666
1767
1868
1969
2070
2171
2272
2373
2474
2575
2676
2777
2878
2979
3080
3181
3282
3383
3484
3585
3686
3787
3888
3989
4090
4191
4292
4393
4494
4595
4696
4797
4898
5052
5051
5053
5054
5055
5056
5057
5058
5059
5060
5061
5062
5063
5064
5065
5066
5067
5068
5069
5070
5071
5072
5073
5074
5075
5076
5077
5078
5079
5080
5081
5082
5083
5084
5085
5086
5087
5088
5089
5090
5091
5092
5093
5094
5095
5096
5097
5098
5099
4999
5100
51
152
253
354
455
556
657
758
859
960
1061
1162
1263
1364
1465
1566
1667
1768
1869
1970
2071
2172
2273
2374
2475
2576
2677
2778
2879
2980
3081
3182
3283
3384
3485
3586
3687
3788
3889
3990
4091
4192
4293
4394
4495
4596
4697
4798
4899
5000
5153
5152
5154
5155
5156
5157
5158
5159
5160
5161
5162
5163
5164
5165
5166
5167
5168
5169
5170
5171
5172
5173
5174
5175
5176
5177
5178
5179
5180
5181
5182
5183
5184
5185
5186
5187
5188
5189
5190
5191
5192
5193
5194
5195
5196
5197
5198
5199
5200
5201
5101
5202
52
153
254
355
456
557
658
759
860
961
1062
1163
1264
1365
1466
1567
1668
1769
1870
1971
2072
2173
2274
2375
2476
2577
2678
2779
2880
2981
3082
3183
3284
3385
3486
3587
3688
3789
3890
3991
4092
4193
4294
4395
4496
4597
4698
4799
4900
5001
5102
5254
5253
5255
5256
5257
5258
5259
5260
5261
5262
5263
5264
5265
5266
5267
5268
5269
5270
5271
5272
5273
5274
5275
5276
5277
5278
5279
5280
5281
5282
5283
5284
5285
5286
5287
5288
5289
5290
5291
5292
5293
5294
5295
5296
5297
5298
5299
5300
5301
5302
5303
5203
5304
53
154
255
356
457
558
659
760
861
962
1063
1164
1265
1366
1467
1568
1669
1770
1871
1972
2073
2174
2275
2376
2477
2578
2679
2780
2881
2982
3083
3184
3285
3386
3487
3588
3689
3790
3891
3992
4093
4194
4295
4396
4497
4598
4699
4800
4901
5002
5103
5204
5355
5354
5356
5357
5358
5359
5360
5361
5362
5363
5364
5365
5366
5367
5368
5369
5370
5371
5372
5373
5374
5375
5376
5377
5378
5379
5380
5381
5382
5383
5384
5385
5386
5387
5388
5389
5390
5391
5392
5393
5394
5395
5396
5397
5398
5399
5400
5401
5402
5403
5404
5405
5305
5406
54
155
256
357
458
559
660
761
862
963
1064
1165
1266
1367
1468
1569
1670
1771
1872
1973
2074
2175
2276
2377
2478
2579
2680
2781
2882
2983
3084
3185
3286
3387
3488
3589
3690
3791
3892
3993
4094
4195
4296
4397
4498
4599
4700
4801
4902
5003
5104
5205
5306
5456
5455
5457
5458
5459
5460
5461
5462
5463
5464
5465
5466
5467
5468
5469
5470
5471
5472
5473
5474
5475
5476
5477
5478
5479
5480
5481
5482
5483
5484
5485
5486
5487
5488
5489
5490
5491
5492
5493
5494
5495
5496
5497
5498
5499
5500
5501
5502
5503
5504
5505
5506
5507
5407
5508
55
156
257
358
459
560
661
762
863
964
1065
1166
1267
1368
1469
1570
1671
1772
1873
1974
2075
2176
2277
2378
2479
2580
2681
2782
2883
2984
3085
3186
3287
3388
3489
3590
3691
3792
3893
3994
4095
4196
4297
4398
4499
4600
4701
4802
4903
5004
5105
5206
5307
5408
5557
5556
5558
5559
5560
5561
5562
5563
5564
5565
5566
5567
5568
5569
5570
5571
5572
5573
5574
5575
5576
5577
5578
5579
5580
5581
5582
5583
5584
5585
5586
5587
5588
5589
5590
5591
5592
5593
5594
5595
5596
5597
5598
5599
5600
5601
5602
5603
5604
5605
5606
5607
5608
5609
5509
5610
56
157
258
359
460
561
662
763
864
965
1066
1167
1268
1369
1470
1571
1672
1773
1874
1975
2076
2177
2278
2379
2480
2581
2682
2783
2884
2985
3086
3187
3288
3389
3490
3591
3692
3793
3894
3995
4096
4197
4298
4399
4500
4601
4702
4803
4904
5005
5106
5207
5308
5409
5510
5658
5657
5659
5660
5661
5662
5663
5664
5665
5666
5667
5668
5669
5670
5671
5672
5673
5674
5675
5676
5677
5678
5679
5680
5681
5682
5683
5684
5685
5686
5687
5688
5689
5690
5691
5692
5693
5694
5695
5696
5697
5698
5699
5700
5701
5702
5703
5704
5705
5706
5707
5708
5709
5710
5711
5611
5712
57
158
259
360
461
562
663
764
865
966
1067
1168
1269
1370
1471
1572
1673
1774
1875
1976
2077
2178
2279
2380
2481
2582
2683
2784
2885
2986
3087
3188
3289
3390
3491
3592
3693
3794
3895
3996
4097
4198
4299
4400
4501
4602
4703
4804
4905
5006
5107
5208
5309
5410
5511
5612
5759
5758
5760
5761
5762
5763
5764
5765
5766
5767
5768
5769
5770
5771
5772
5773
5774
5775
5776
5777
5778
5779
5780
5781
5782
5783
5784
5785
5786
5787
5788
5789
5790
5791
5792
5793
5794
5795
5796
5797
5798
5799
5800
5801
5802
5803
5804
5805
5806
5807
5808
5809
5810
5811
5812
5813
5713
5814
58
159
260
361
462
563
664
765
866
967
1068
1169
1270
1371
1472
1573
1674
1775
1876
1977
2078
2179
2280
2381
2482
2583
2684
2785
2886
2987
3088
3189
3290
3391
3492
3593
3694
3795
3896
3997
4098
4199
4300
4401
4502
4603
4704
4805
4906
5007
5108
5209
5310
5411
5512
5613
5714
5860
5859
5861
5862
5863
5864
5865
5866
5867
5868
5869
5870
5871
5872
5873
5874
5875
5876
5877
5878
5879
5880
5881
5882
5883
5884
5885
5886
5887
5888
5889
5890
5891
5892
5893
5894
5895
5896
5897
5898
5899
5900
5901
5902
5903
5904
5905
5906
5907
5908
5909
5910
5911
5912
5913
5914
5915
5815
5916
59
160
261
362
463
564
665
766
867
968
1069
1170
1271
1372
1473
1574
1675
1776
1877
1978
2079
2180
2281
2382
2483
2584
2685
2786
2887
2988
3089
3190
3291
3392
3493
3594
3695
3796
3897
3998
4099
4200
4301
4402
4503
4604
4705
4806
4907
5008
5109
5210
5311
5412
5513
5614
5715
5816
5961
5960
5962
5963
5964
5965
5966
5967
5968
5969
5970
5971
5972
5973
5974
5975
5976
5977
5978
5979
5980
5981
5982
5983
5984
5985
5986
5987
5988
5989
5990
5991
5992
5993
5994
5995
5996
5997
5998
5999
6000
6001
6002
6003
6004
6005
6006
6007
6008
6009
6010
6011
6012
6013
6014
6015
6016
6017
5917
6018
60
161
262
363
464
565
666
767
868
969
1070
1171
1272
1373
1474
1575
1676
1777
1878
1979
2080
2181
2282
2383
2484
2585
2686
2787
2888
2989
3090
3191
3292
3393
3494
3595
3696
3797
3898
3999
4100
4201
4302
4403
4504
4605
4706
4807
4908
5009
5110
5211
5312
5413
5514
5615
5716
5817
5918
6062
6061
6063
6064
6065
6066
6067
6068
6069
6070
6071
6072
6073
6074
6075
6076
6077
6078
6079
6080
6081
6082
6083
6084
6085
6086
6087
6088
6089
6090
6091
6092
6093
6094
6095
6096
6097
6098
6099
6100
6101
6102
6103
6104
6105
6106
6107
6108
6109
6110
6111
6112
6113
6114
6115
6116
6117
6118
6119
6019
6120
61
162
263
364
465
566
667
768
869
970
1071
1172
1273
1374
1475
1576
1677
1778
1879
1980
2081
2182
2283
2384
2485
2586
2687
2788
2889
2990
3091
3192
3293
3394
3495
3596
3697
3798
3899
4000
4101
4202
4303
4404
4505
4606
4707
4808
4909
5010
5111
5212
5313
5414
5515
5616
5717
5818
5919
6020
6163
6162
6164
6165
6166
6167
6168
6169
6170
6171
6172
6173
6174
6175
6176
6177
6178
6179
6180
6181
6182
6183
6184
6185
6186
6187
6188
6189
6190
6191
6192
6193
6194
6195
6196
6197
6198
6199
6200
6201
6202
6203
6204
6205
6206
6207
6208
6209
6210
6211
6212
6213
6214
6215
6216
6217
6218
6219
6220
6221
6121
6222
62
163
264
365
466
567
668
769
870
971
1072
1173
1274
1375
1476
1577
1678
1779
1880
1981
2082
2183
2284
2385
2486
2587
2688
2789
2890
2991
3092
3193
3294
3395
3496
3597
3698
3799
3900
4001
4102
4203
4304
4405
4506
4607
4708
4809
4910
5011
5112
5213
5314
5415
5516
5617
5718
5819
5920
6021
6122
6264
6263
6265
6266
6267
6268
6269
6270
6271
6272
6273
6274
6275
6276
6277
6278
6279
6280
6281
6282
6283
6284
6285
6286
6287
6288
6289
6290
6291
6292
6293
6294
6295
6296
6297
6298
6299
6300
6301
6302
6303
6304
6305
6306
6307
6308
6309
6310
6311
6312
6313
6314
6315
6316
6317
6318
6319
6320
6321
6322
6323
6223
6324
63
164
265
366
467
568
669
770
871
972
1073
1174
1275
1376
1477
1578
1679
1780
1881
1982
2083
2184
2285
2386
2487
2588
2689
2790
2891
2992
3093
3194
3295
3396
3497
3598
3699
3800
3901
4002
4103
4204
4305
4406
4507
4608
4709
4810
4911
5012
5113
5214
5315
5416
5517
5618
5719
5820
5921
6022
6123
6224
6365
6364
6366
6367
6368
6369
6370
6371
6372
6373
6374
6375
6376
6377
6378
6379
6380
6381
6382
6383
6384
6385
6386
6387
6388
6389
6390
6391
6392
6393
6394
6395
6396
6397
6398
6399
6400
6401
6402
6403
6404
6405
6406
6407
6408
6409
6410
6411
6412
6413
6414
6415
6416
6417
6418
6419
6420
6421
6422
6423
6424
6425
6325
6426
64
165
266
367
468
569
670
771
872
973
1074
1175
1276
1377
1478
1579
1680
1781
1882
1983
2084
2185
2286
2387
2488
2589
2690
2791
2892
2993
3094
3195
3296
3397
3498
3599
3700
3801
3902
4003
4104
4205
4306
4407
4508
4609
4710
4811
4912
5013
5114
5215
5316
5417
5518
5619
5720
5821
5922
6023
6124
6225
6326
6466
6465
6467
6468
6469
6470
6471
6472
6473
6474
6475
6476
6477
6478
6479
6480
6481
6482
6483
6484
6485
6486
6487
6488
6489
6490
6491
6492
6493
6494
6495
6496
6497
6498
6499